6
	Energy:     399.6910588
O         -4.83393        2.00080       -0.45325
O         -5.04165        1.31244        0.68136
C         -3.89048        1.08929       -0.03696
O         -2.78026        1.69055        0.55958
H         -3.84068        0.12188       -0.57854
H         -2.31991        2.17608       -0.17219
