9
	Energy:      21.8114517
O         -3.37268        1.01216       -0.00401
O         -3.87183       -0.19512        0.00982
C         -2.74649       -1.06249        0.02023
C         -1.55762       -0.18638        0.01045
H         -2.74817       -1.70265       -0.88696
H         -2.74874       -1.68144        0.94203
C         -2.04089        1.06824       -0.00424
H         -0.51492       -0.47469        0.01412
H         -1.45586        1.97790       -0.01460
