12
	Energy:      32.7891166
C         -3.21115        2.13673        0.13285
C         -2.10143        3.04509       -0.24661
C         -0.99931        2.17251        0.23165
H         -2.13819        4.07042        0.17903
H         -2.06232        3.09392       -1.35923
O         -1.39617        0.87981       -0.16465
O         -2.73981        0.85515       -0.21084
H         -4.14359        2.40018       -0.40995
H         -3.39896        2.16357        1.23104
O          0.20896        2.54162       -0.37234
H         -0.91316        2.21297        1.34437
H          0.89320        1.91113       -0.02731
