5
	Energy:       0.5707579
O         -4.62841        1.31062       -0.07330
C         -3.70859        0.50802       -0.08415
O         -2.44130        0.92328       -0.28514
H         -2.23287        1.85806       -0.42417
H         -3.91153       -0.54616        0.06884
