5
	Energy:      -0.0976693
C         -5.76437        1.12515       -0.00213
C         -4.46025        1.17980        0.00061
H         -6.28572        0.56750        0.76805
H         -6.32732        1.64464       -0.76966
O         -3.26496        1.23018        0.00312
