9
	Energy:       2.2554456
O         -5.22318        2.81901        0.00000
C         -4.17119        2.20110       -0.00000
C         -2.89064        2.92814       -0.00000
C         -1.72188        2.27288       -0.00000
O         -0.54558        2.93854       -0.00000
H         -4.19156        1.11545       -0.00000
H         -2.90249        4.01476        0.00000
H         -1.70377        1.18691       -0.00000
H         -0.49524        3.90545       -0.00000
