4
	Energy:       1.9782927
O         -3.00137        0.54600       -0.09968
O         -1.75820        0.92934        0.09968
H         -3.54987        1.23718        0.35020
H         -1.20969        0.23816       -0.35020
