7
	Energy:       0.3656653
C         -5.69014        0.03044        0.00132
C         -4.36433        0.71961        0.00487
H         -6.35218        0.50875       -0.74994
H         -6.15397        0.11839        1.00561
H         -5.57477       -1.04541       -0.25093
O         -3.34319        0.10074       -0.24803
H         -4.30819        1.77857        0.23400
