9
	Energy:       1.5396996
C         -5.43010       -0.89156       -0.00000
C         -4.29763       -0.18989        0.00000
O         -3.10652       -0.83057       -0.00000
C         -1.92785       -0.16943        0.00000
O         -0.88271       -0.79780       -0.00000
H         -1.89491        0.91684        0.00000
H         -6.38778       -0.38111        0.00000
H         -5.40772       -1.97699       -0.00000
H         -4.34558        0.89669        0.00000
