12
	Energy:       7.7866199
C         -6.17571       -0.12463       -0.02303
C         -4.65556       -0.12361       -0.17319
H         -6.58705        0.85333       -0.35220
H         -6.46221       -0.29226        1.03773
H         -6.62501       -0.92449       -0.65025
O         -4.12635        0.91044        0.62557
O         -2.98639        1.28220        0.07015
C         -4.07979       -1.44804        0.25239
H         -4.43860        0.04516       -1.25525
O         -2.87801       -1.64768        0.17690
H         -3.17727        2.16791       -0.33280
H         -4.72310       -2.24038        0.62398
