4
	Energy:       0.0048280
C         -4.14541        1.05797        0.00000
O         -2.92608        1.07585        0.00000
H         -4.69732        1.71625       -0.66183
H         -4.67779        0.38379        0.66183
