8
	Energy:       0.5291262
O         -2.54026        2.85449       -0.23117
C         -1.47015        2.31503       -0.11989
C         -0.30951        1.73145        0.00236
C          0.98196        2.48157       -0.17594
H          1.05382        2.91049       -1.19099
H          1.82636        1.77422       -0.02423
H          1.06175        3.29246        0.57987
H         -0.28253        0.67589        0.22247
