12
	Energy:       6.3183544
O         -3.74801        1.14525       -0.26938
O         -2.69631        0.34836       -0.22784
C         -1.57769        1.18773       -0.10196
C         -0.31334        0.33166       -0.05357
H         -1.64722        1.77660        0.84152
H         -1.51378        1.87098       -0.97990
C          0.91711        1.17953        0.08076
H         -0.23932       -0.26716       -0.98714
H         -0.37160       -0.36059        0.81420
O          2.01637        0.65238        0.13413
H          0.84586        2.26207        0.13169
H         -4.19897        1.01693        0.60450
